5.988000000000e-02	1000000	5.988000000000e+04	500
