5.055900000000e-02	1000000	5.055900000000e+04	500
